Variables = "x","y", "Velocity_x", "Velocity_y", "Velocity_whole value", "Pressure", "Absolute pressure", "Total pressure"
Zone i=114, j=42
 0.0000000e+000  0.0000000e+000  0.0000000e+000  0.0000000e+000  0.0000000e+000  8.0048853e-001  8.0048853e-001  8.0048853e-001 
 9.1836698e-002  0.0000000e+000  0.0000000e+000  0.0000000e+000  0.0000000e+000  7.2762740e-001  7.2762740e-001  7.2762740e-001 
 2.7551055e-001  0.0000000e+000  0.0000000e+000  0.0000000e+000  0.0000000e+000  5.8190483e-001  5.8190483e-001  5.8190483e-001 
 4.5918483e-001  0.0000000e+000  0.0000000e+000  0.0000000e+000  0.0000000e+000  5.8771825e-001  5.8771825e-001  5.8771825e-001 
 6.4285868e-001  0.0000000e+000  0.0000000e+000  0.0000000e+000  0.0000000e+000  5.7893246e-001  5.7893246e-001  5.7893246e-001 
 8.2653213e-001  0.0000000e+000  0.0000000e+000  0.0000000e+000  0.0000000e+000  5.6768155e-001  5.6768155e-001  5.6768155e-001 
 1.0102054e+000  0.0000000e+000  0.0000000e+000  0.0000000e+000  0.0000000e+000  5.5850381e-001  5.5850381e-001  5.5850381e-001 
 1.1938790e+000  0.0000000e+000  0.0000000e+000  0.0000000e+000  0.0000000e+000  5.4962510e-001  5.4962510e-001  5.4962510e-001 
 1.3775525e+000  0.0000000e+000  0.0000000e+000  0.0000000e+000  0.0000000e+000  5.4111212e-001  5.4111212e-001  5.4111212e-001 
 1.5612260e+000  0.0000000e+000  0.0000000e+000  0.0000000e+000  0.0000000e+000  5.3301448e-001  5.3301448e-001  5.3301448e-001 
 1.7448995e+000  0.0000000e+000  0.0000000e+000  0.0000000e+000  0.0000000e+000  5.2526540e-001  5.2526540e-001  5.2526540e-001 
 1.9285730e+000  0.0000000e+000  0.0000000e+000  0.0000000e+000  0.0000000e+000  5.1782608e-001  5.1782608e-001  5.1782608e-001 
 2.1122465e+000  0.0000000e+000  0.0000000e+000  0.0000000e+000  0.0000000e+000  5.1066637e-001  5.1066637e-001  5.1066637e-001 
 2.2959194e+000  0.0000000e+000  0.0000000e+000  0.0000000e+000  0.0000000e+000  5.0375575e-001  5.0375575e-001  5.0375575e-001 
 2.4795930e+000  0.0000000e+000  0.0000000e+000  0.0000000e+000  0.0000000e+000  4.9707118e-001  4.9707118e-001  4.9707118e-001 
 2.6632667e+000  0.0000000e+000  0.0000000e+000  0.0000000e+000  0.0000000e+000  4.9058902e-001  4.9058902e-001  4.9058902e-001 
 2.8469400e+000  0.0000000e+000  0.0000000e+000  0.0000000e+000  0.0000000e+000  4.8429209e-001  4.8429209e-001  4.8429209e-001 
 3.0306134e+000  0.0000000e+000  0.0000000e+000  0.0000000e+000  0.0000000e+000  4.7816396e-001  4.7816396e-001  4.7816396e-001 
 3.2142866e+000  0.0000000e+000  0.0000000e+000  0.0000000e+000  0.0000000e+000  4.7219086e-001  4.7219086e-001  4.7219086e-001 
 3.3979602e+000  0.0000000e+000  0.0000000e+000  0.0000000e+000  0.0000000e+000  4.6636063e-001  4.6636063e-001  4.6636063e-001 
 3.5816336e+000  0.0000000e+000  0.0000000e+000  0.0000000e+000  0.0000000e+000  4.6066222e-001  4.6066222e-001  4.6066222e-001 
 3.7653065e+000  0.0000000e+000  0.0000000e+000  0.0000000e+000  0.0000000e+000  4.5508716e-001  4.5508716e-001  4.5508716e-001 
 3.9489799e+000  0.0000000e+000  0.0000000e+000  0.0000000e+000  0.0000000e+000  4.4962659e-001  4.4962659e-001  4.4962659e-001 
 4.1326532e+000  0.0000000e+000  0.0000000e+000  0.0000000e+000  0.0000000e+000  4.4427392e-001  4.4427392e-001  4.4427392e-001 
 4.3163271e+000  0.0000000e+000  0.0000000e+000  0.0000000e+000  0.0000000e+000  4.3902311e-001  4.3902311e-001  4.3902311e-001 
 4.5000005e+000  0.0000000e+000  0.0000000e+000  0.0000000e+000  0.0000000e+000  4.3386912e-001  4.3386912e-001  4.3386912e-001 
 4.6836734e+000  0.0000000e+000  0.0000000e+000  0.0000000e+000  0.0000000e+000  4.2880696e-001  4.2880696e-001  4.2880696e-001 
 4.8673468e+000  0.0000000e+000  0.0000000e+000  0.0000000e+000  0.0000000e+000  4.2383486e-001  4.2383486e-001  4.2383486e-001 
 5.0510206e+000  0.0000000e+000  0.0000000e+000  0.0000000e+000  0.0000000e+000  4.1894993e-001  4.1894993e-001  4.1894993e-001 
 5.2346935e+000  0.0000000e+000  0.0000000e+000  0.0000000e+000  0.0000000e+000  4.1415331e-001  4.1415331e-001  4.1415331e-001 
 5.4183669e+000  0.0000000e+000  0.0000000e+000  0.0000000e+000  0.0000000e+000  4.0944424e-001  4.0944424e-001  4.0944424e-001 
 5.6020403e+000  0.0000000e+000  0.0000000e+000  0.0000000e+000  0.0000000e+000  4.0482917e-001  4.0482917e-001  4.0482917e-001 
 5.7857141e+000  0.0000000e+000  0.0000000e+000  0.0000000e+000  0.0000000e+000  4.0031382e-001  4.0031382e-001  4.0031382e-001 
 5.9693875e+000  0.0000000e+000  0.0000000e+000  0.0000000e+000  0.0000000e+000  3.9591041e-001  3.9591041e-001  3.9591041e-001 
 6.1530604e+000  0.0000000e+000  0.0000000e+000  0.0000000e+000  0.0000000e+000  3.9163694e-001  3.9163694e-001  3.9163694e-001 
 6.3367338e+000  0.0000000e+000  0.0000000e+000  0.0000000e+000  0.0000000e+000  3.8751793e-001  3.8751793e-001  3.8751793e-001 
 6.5204077e+000  0.0000000e+000  0.0000000e+000  0.0000000e+000  0.0000000e+000  3.8359174e-001  3.8359174e-001  3.8359174e-001 
 6.7040811e+000  0.0000000e+000  0.0000000e+000  0.0000000e+000  0.0000000e+000  3.7990820e-001  3.7990820e-001  3.7990820e-001 
 6.8877544e+000  0.0000000e+000  0.0000000e+000  0.0000000e+000  0.0000000e+000  3.7653887e-001  3.7653887e-001  3.7653887e-001 
 7.0714273e+000  0.0000000e+000  0.0000000e+000  0.0000000e+000  0.0000000e+000  3.7358174e-001  3.7358174e-001  3.7358174e-001 
 7.2551012e+000  0.0000000e+000  0.0000000e+000  0.0000000e+000  0.0000000e+000  3.7116522e-001  3.7116522e-001  3.7116522e-001 
 7.4387746e+000  0.0000000e+000  0.0000000e+000  0.0000000e+000  0.0000000e+000  3.6946255e-001  3.6946255e-001  3.6946255e-001 
 7.6224475e+000  0.0000000e+000  0.0000000e+000  0.0000000e+000  0.0000000e+000  3.6869228e-001  3.6869228e-001  3.6869228e-001 
 7.8061209e+000  0.0000000e+000  0.0000000e+000  0.0000000e+000  0.0000000e+000  3.6910644e-001  3.6910644e-001  3.6910644e-001 
 7.9897943e+000  0.0000000e+000  0.0000000e+000  0.0000000e+000  0.0000000e+000  3.7104386e-001  3.7104386e-001  3.7104386e-001 
 8.1734676e+000  0.0000000e+000  0.0000000e+000  0.0000000e+000  0.0000000e+000  3.7465918e-001  3.7465918e-001  3.7465918e-001 
 8.3571415e+000  0.0000000e+000  0.0000000e+000  0.0000000e+000  0.0000000e+000  3.8042808e-001  3.8042808e-001  3.8042808e-001 
 8.5408134e+000  0.0000000e+000  0.0000000e+000  0.0000000e+000  0.0000000e+000  3.8758600e-001  3.8758600e-001  3.8758600e-001 
 8.7244864e+000  0.0000000e+000  0.0000000e+000  0.0000000e+000  0.0000000e+000  3.9697576e-001  3.9697576e-001  3.9697576e-001 
 8.9081612e+000  0.0000000e+000  0.0000000e+000  0.0000000e+000  0.0000000e+000  4.0524954e-001  4.0524954e-001  4.0524954e-001 
 9.1119652e+000  6.2877950e-003  0.0000000e+000  0.0000000e+000  0.0000000e+000  4.1491473e-001  4.1491473e-001  4.1491473e-001 
 9.3344860e+000  3.1359907e-002  0.0000000e+000  0.0000000e+000  0.0000000e+000  4.2436209e-001  4.2436209e-001  4.2436209e-001 
 9.5528002e+000  8.1188813e-002  0.0000000e+000  0.0000000e+000  0.0000000e+000  4.3063074e-001  4.3063074e-001  4.3063074e-001 
 9.7641640e+000  1.5514791e-001  0.0000000e+000  0.0000000e+000  0.0000000e+000  4.3728167e-001  4.3728167e-001  4.3728167e-001 
 9.9659138e+000  2.5230712e-001  0.0000000e+000  0.0000000e+000  0.0000000e+000  4.4323620e-001  4.4323620e-001  4.4323620e-001 
 1.0155519e+001  3.7144461e-001  0.0000000e+000  0.0000000e+000  0.0000000e+000  4.4917366e-001  4.4917366e-001  4.4917366e-001 
 1.0330595e+001  5.1106215e-001  0.0000000e+000  0.0000000e+000  0.0000000e+000  4.5462817e-001  4.5462817e-001  4.5462817e-001 
 1.0488935e+001  6.6940391e-001  0.0000000e+000  0.0000000e+000  0.0000000e+000  4.5937905e-001  4.5937905e-001  4.5937905e-001 
 1.0628555e+001  8.4447885e-001  0.0000000e+000  0.0000000e+000  0.0000000e+000  4.6268129e-001  4.6268129e-001  4.6268129e-001 
 1.0747695e+001  1.0340848e+000  0.0000000e+000  0.0000000e+000  0.0000000e+000  4.6354768e-001  4.6354768e-001  4.6354768e-001 
 1.0844854e+001  1.2358379e+000  0.0000000e+000  0.0000000e+000  0.0000000e+000  4.5966381e-001  4.5966381e-001  4.5966381e-001 
 1.0918815e+001  1.4472010e+000  0.0000000e+000  0.0000000e+000  0.0000000e+000  4.4911867e-001  4.4911867e-001  4.4911867e-001 
 1.0968639e+001  1.6655155e+000  0.0000000e+000  0.0000000e+000  0.0000000e+000  4.2409161e-001  4.2409161e-001  4.2409161e-001 
 1.0993710e+001  1.8880360e+000  0.0000000e+000  0.0000000e+000  0.0000000e+000  3.7951189e-001  3.7951189e-001  3.7951189e-001 
 1.1000000e+001  2.1020410e+000  0.0000000e+000  0.0000000e+000  0.0000000e+000  2.8169847e-001  2.8169847e-001  2.8169847e-001 
 1.1000000e+001  2.3061230e+000  0.0000000e+000  0.0000000e+000  0.0000000e+000  1.5843472e-001  1.5843472e-001  1.5843472e-001 
 1.1000000e+001  2.5102038e+000  0.0000000e+000  0.0000000e+000  0.0000000e+000  7.1493901e-002  7.1493901e-002  7.1493901e-002 
 1.1000000e+001  2.7142849e+000  0.0000000e+000  0.0000000e+000  0.0000000e+000  6.0172859e-003  6.0172859e-003  6.0172859e-003 
 1.1000000e+001  2.9183669e+000  0.0000000e+000  0.0000000e+000  0.0000000e+000 -3.9385203e-002 -3.9385203e-002 -3.9385203e-002 
 1.1000000e+001  3.1224484e+000  0.0000000e+000  0.0000000e+000  0.0000000e+000 -6.7619808e-002 -6.7619808e-002 -6.7619808e-002 
 1.1000000e+001  3.3265300e+000  0.0000000e+000  0.0000000e+000  0.0000000e+000 -8.3361328e-002 -8.3361328e-002 -8.3361328e-002 
 1.1000000e+001  3.5306115e+000  0.0000000e+000  0.0000000e+000  0.0000000e+000 -9.0325907e-002 -9.0325907e-002 -9.0325907e-002 
 1.1000000e+001  3.7346931e+000  0.0000000e+000  0.0000000e+000  0.0000000e+000 -9.1161184e-002 -9.1161184e-002 -9.1161184e-002 
 1.1000000e+001  3.9387751e+000  0.0000000e+000  0.0000000e+000  0.0000000e+000 -8.7802052e-002 -8.7802052e-002 -8.7802052e-002 
 1.1000000e+001  4.1428566e+000  0.0000000e+000  0.0000000e+000  0.0000000e+000 -8.1714012e-002 -8.1714012e-002 -8.1714012e-002 
 1.1000000e+001  4.3469372e+000  0.0000000e+000  0.0000000e+000  0.0000000e+000 -7.3901609e-002 -7.3901609e-002 -7.3901609e-002 
 1.1000000e+001  4.5510187e+000  0.0000000e+000  0.0000000e+000  0.0000000e+000 -6.5149277e-002 -6.5149277e-002 -6.5149277e-002 
 1.1000000e+001  4.7551003e+000  0.0000000e+000  0.0000000e+000  0.0000000e+000 -5.5969868e-002 -5.5969868e-002 -5.5969868e-002 
 1.1000000e+001  4.9591818e+000  0.0000000e+000  0.0000000e+000  0.0000000e+000 -4.6770170e-002 -4.6770170e-002 -4.6770170e-002 
 1.1000000e+001  5.1632643e+000  0.0000000e+000  0.0000000e+000  0.0000000e+000 -3.7851818e-002 -3.7851818e-002 -3.7851818e-002 
 1.1000000e+001  5.3673458e+000  0.0000000e+000  0.0000000e+000  0.0000000e+000 -2.9365065e-002 -2.9365065e-002 -2.9365065e-002 
 1.1000000e+001  5.5714273e+000  0.0000000e+000  0.0000000e+000  0.0000000e+000 -2.1475125e-002 -2.1475125e-002 -2.1475125e-002 
 1.1000000e+001  5.7755089e+000  0.0000000e+000  0.0000000e+000  0.0000000e+000 -1.4228428e-002 -1.4228428e-002 -1.4228428e-002 
 1.1000000e+001  5.9795904e+000  0.0000000e+000  0.0000000e+000  0.0000000e+000 -7.6948185e-003 -7.6948185e-003 -7.6948185e-003 
 1.1000000e+001  6.1836715e+000  0.0000000e+000  0.0000000e+000  0.0000000e+000 -1.8644861e-003 -1.8644861e-003 -1.8644861e-003 
 1.1000000e+001  6.3877525e+000  0.0000000e+000  0.0000000e+000  0.0000000e+000  3.2592318e-003  3.2592318e-003  3.2592318e-003 
 1.1000000e+001  6.5918341e+000  0.0000000e+000  0.0000000e+000  0.0000000e+000  7.6811095e-003  7.6811095e-003  7.6811095e-003 
 1.1000000e+001  6.7959156e+000  0.0000000e+000  0.0000000e+000  0.0000000e+000  1.1447892e-002  1.1447892e-002  1.1447892e-002 
 1.1000000e+001  6.9999971e+000  0.0000000e+000  0.0000000e+000  0.0000000e+000  1.4586366e-002  1.4586366e-002  1.4586366e-002 
 1.1000000e+001  7.2040787e+000  0.0000000e+000  0.0000000e+000  0.0000000e+000  1.7136974e-002  1.7136974e-002  1.7136974e-002 
 1.1000000e+001  7.4081602e+000  0.0000000e+000  0.0000000e+000  0.0000000e+000  1.9157901e-002  1.9157901e-002  1.9157901e-002 
 1.1000000e+001  7.6122417e+000  0.0000000e+000  0.0000000e+000  0.0000000e+000  2.0681351e-002  2.0681351e-002  2.0681351e-002 
 1.1000000e+001  7.8163242e+000  0.0000000e+000  0.0000000e+000  0.0000000e+000  2.1769553e-002  2.1769553e-002  2.1769553e-002 
 1.1000000e+001  8.0204058e+000  0.0000000e+000  0.0000000e+000  0.0000000e+000  2.2463934e-002  2.2463934e-002  2.2463934e-002 
 1.1000000e+001  8.2244873e+000  0.0000000e+000  0.0000000e+000  0.0000000e+000  2.2806456e-002  2.2806456e-002  2.2806456e-002 
 1.1000000e+001  8.4285679e+000  0.0000000e+000  0.0000000e+000  0.0000000e+000  2.2853402e-002  2.2853402e-002  2.2853402e-002 
 1.1000000e+001  8.6326504e+000  0.0000000e+000  0.0000000e+000  0.0000000e+000  2.2624828e-002  2.2624828e-002  2.2624828e-002 
 1.1000000e+001  8.8367310e+000  0.0000000e+000  0.0000000e+000  0.0000000e+000  2.2176964e-002  2.2176964e-002  2.2176964e-002 
 1.1000000e+001  9.0408134e+000  0.0000000e+000  0.0000000e+000  0.0000000e+000  2.1509828e-002  2.1509828e-002  2.1509828e-002 
 1.1000000e+001  9.2448940e+000  0.0000000e+000  0.0000000e+000  0.0000000e+000  2.0686312e-002  2.0686312e-002  2.0686312e-002 
 1.1000000e+001  9.4489765e+000  0.0000000e+000  0.0000000e+000  0.0000000e+000  1.9695820e-002  1.9695820e-002  1.9695820e-002 
 1.1000000e+001  9.6530571e+000  0.0000000e+000  0.0000000e+000  0.0000000e+000  1.8585544e-002  1.8585544e-002  1.8585544e-002 
 1.1000000e+001  9.8571396e+000  0.0000000e+000  0.0000000e+000  0.0000000e+000  1.7351842e-002  1.7351842e-002  1.7351842e-002 
 1.1000000e+001  1.0061220e+001  0.0000000e+000  0.0000000e+000  0.0000000e+000  1.6018758e-002  1.6018758e-002  1.6018758e-002 
 1.1000000e+001  1.0265301e+001  0.0000000e+000  0.0000000e+000  0.0000000e+000  1.4595805e-002  1.4595805e-002  1.4595805e-002 
 1.1000000e+001  1.0469379e+001  0.0000000e+000  0.0000000e+000  0.0000000e+000  1.3099168e-002  1.3099168e-002  1.3099168e-002 
 1.1000000e+001  1.0673465e+001  0.0000000e+000  0.0000000e+000  0.0000000e+000  1.1512826e-002  1.1512826e-002  1.1512826e-002 
 1.1000000e+001  1.0877550e+001  0.0000000e+000  0.0000000e+000  0.0000000e+000  9.8977843e-003  9.8977843e-003  9.8977843e-003 
 1.1000000e+001  1.1081631e+001  0.0000000e+000  0.0000000e+000  0.0000000e+000  8.1711812e-003  8.1711812e-003  8.1711812e-003 
 1.1000000e+001  1.1285709e+001  0.0000000e+000  0.0000000e+000  0.0000000e+000  6.4895730e-003  6.4895730e-003  6.4895730e-003 
 1.1000000e+001  1.1489790e+001  0.0000000e+000  0.0000000e+000  0.0000000e+000  4.5834854e-003  4.5834854e-003  4.5834854e-003 
 1.1000000e+001  1.1693871e+001  0.0000000e+000  0.0000000e+000  0.0000000e+000  2.9417686e-003  2.9417686e-003  2.9417686e-003 
 1.1000000e+001  1.1897955e+001  0.0000000e+000  0.0000000e+000  0.0000000e+000  8.1222213e-004  8.1222213e-004  8.1222213e-004 
 1.1000000e+001  1.2000000e+001  0.0000000e+000  0.0000000e+000  0.0000000e+000 -2.5255236e-004 -2.5255236e-004 -2.5255236e-004 
 0.0000000e+000  6.0982401e-003  1.0000000e+000  0.0000000e+000  1.0000000e+000  7.9487956e-001  7.9487956e-001  1.2948796e+000 
 9.1838628e-002  6.1001475e-003  3.9070770e-001  3.0993205e-002  3.9193505e-001  7.2417146e-001  7.2417146e-001  8.0097800e-001 
 2.7551630e-001  6.1039627e-003  1.7989218e-001  2.2233115e-003  1.7990592e-001  5.8275491e-001  5.8275491e-001  5.9893799e-001 
 4.5919439e-001  6.1077774e-003  1.2598343e-001 -7.7855955e-005  1.2598346e-001  5.8796543e-001  5.8796543e-001  5.9590137e-001 
 6.4287210e-001  6.1115902e-003  1.1019859e-001  3.7802743e-005  1.1019859e-001  5.7903010e-001  5.7903010e-001  5.8510196e-001 
 8.2654929e-001  6.1154002e-003  1.0056818e-001  5.4783050e-005  1.0056820e-001  5.6773907e-001  5.6773907e-001  5.7279605e-001 
 1.0102265e+000  6.1192177e-003  9.3172073e-002  3.6015732e-005  9.3172081e-002  5.5854589e-001  5.5854589e-001  5.6288642e-001 
 1.1939037e+000  6.1230427e-003  8.7804593e-002  2.8580687e-005  8.7804601e-002  5.4965681e-001  5.4965681e-001  5.5351162e-001 
 1.3775810e+000  6.1268676e-003  8.3566315e-002  2.4209881e-005  8.3566315e-002  5.4113704e-001  5.4113704e-001  5.4462868e-001 
 1.5612583e+000  6.1306800e-003  8.0079533e-002  2.0407360e-005  8.0079533e-002  5.3303480e-001  5.3303480e-001  5.3624117e-001 
 1.7449355e+000  6.1344900e-003  7.7155925e-002  1.7528942e-005  7.7155925e-002  5.2528226e-001  5.2528226e-001  5.2825880e-001 
 1.9286129e+000  6.1383126e-003  7.4655719e-002  1.5370717e-005  7.4655719e-002  5.1784027e-001  5.1784027e-001  5.2062702e-001 
 2.1122904e+000  6.1421376e-003  7.2485305e-002  1.3657896e-005  7.2485305e-002  5.1067847e-001  5.1067847e-001  5.1330554e-001 
 2.2959676e+000  6.1459350e-003  7.0578076e-002  1.2034502e-005  7.0578076e-002  5.0376618e-001  5.0376618e-001  5.0625682e-001 
 2.4796448e+000  6.1497325e-003  6.8885840e-002  1.0876989e-005  6.8885840e-002  4.9708018e-001  4.9708018e-001  4.9945280e-001 
 2.6633220e+000  6.1535574e-003  6.7371972e-002  9.7937145e-006  6.7371972e-002  4.9059689e-001  4.9059689e-001  4.9286637e-001 
 2.8469992e+000  6.1573801e-003  6.6007391e-002  8.8817296e-006  6.6007391e-002  4.8429894e-001  4.8429894e-001  4.8647743e-001 
 3.0306766e+000  6.1611752e-003  6.4769581e-002  8.0955679e-006  6.4769581e-002  4.7816998e-001  4.7816998e-001  4.8026752e-001 
 3.2143533e+000  6.1649727e-003  6.3640460e-002  7.4192990e-006  6.3640460e-002  4.7219610e-001  4.7219610e-001  4.7422117e-001 
 3.3980305e+000  6.1687976e-003  6.2605821e-002  6.9078678e-006  6.2605821e-002  4.6636522e-001  4.6636522e-001  4.6832496e-001 
 3.5817080e+000  6.1726226e-003  6.1652943e-002  6.3450752e-006  6.1652943e-002  4.6066621e-001  4.6066621e-001  4.6256676e-001 
 3.7653852e+000  6.1764475e-003  6.0771909e-002  5.9093245e-006  6.0771909e-002  4.5509061e-001  4.5509061e-001  4.5693722e-001 
 3.9490623e+000  6.1802724e-003  5.9954084e-002  5.4613561e-006  5.9954084e-002  4.4962960e-001  4.4962960e-001  4.5142686e-001 
 4.1327395e+000  6.1840974e-003  5.9192002e-002  5.1728107e-006  5.9192002e-002  4.4427654e-001  4.4427654e-001  4.4602838e-001 
 4.3164167e+000  6.1879223e-003  5.8479212e-002  4.9744854e-006  5.8479212e-002  4.3902534e-001  4.3902534e-001  4.4073525e-001 
 4.5000939e+000  6.1917473e-003  5.7810504e-002  4.6877603e-006  5.7810504e-002  4.3387106e-001  4.3387106e-001  4.3554208e-001 
 4.6837711e+000  6.1955727e-003  5.7179652e-002  4.3776249e-006  5.7179652e-002  4.2880857e-001  4.2880857e-001  4.3044332e-001 
 4.8674483e+000  6.1993976e-003  5.6582361e-002  4.2474867e-006  5.6582361e-002  4.2383623e-001  4.2383623e-001  4.2543700e-001 
 5.0511255e+000  6.2031625e-003  5.6012612e-002  3.9706238e-006  5.6012612e-002  4.1895106e-001  4.1895106e-001  4.2051977e-001 
 5.2348027e+000  6.2069274e-003  5.5466212e-002  3.9889469e-006  5.5466212e-002  4.1415423e-001  4.1415423e-001  4.1569248e-001 
 5.4184799e+000  6.2107523e-003  5.4937337e-002  3.8071119e-006  5.4937337e-002  4.0944505e-001  4.0944505e-001  4.1095409e-001 
 5.6021571e+000  6.2145777e-003  5.4418918e-002  3.8861263e-006  5.4418918e-002  4.0482989e-001  4.0482989e-001  4.0631059e-001 
 5.7858343e+000  6.2184026e-003  5.3902846e-002  3.9650959e-006  5.3902846e-002  4.0031451e-001  4.0031451e-001  4.0176725e-001 
 5.9695115e+000  6.2222276e-003  5.3377856e-002  4.2735910e-006  5.3377856e-002  3.9591113e-001  3.9591113e-001  3.9733574e-001 
 6.1531887e+000  6.2260553e-003  5.2831035e-002  4.6292162e-006  5.2831035e-002  3.9163786e-001  3.9163786e-001  3.9303342e-001 
 6.3368654e+000  6.2298197e-003  5.2242618e-002  5.3577564e-006  5.2242618e-002  3.8751918e-001  3.8751918e-001  3.8888383e-001 
 6.5205431e+000  6.2335823e-003  5.1588781e-002  6.2929398e-006  5.1588781e-002  3.8359350e-001  3.8359350e-001  3.8492420e-001 
 6.7042203e+000  6.2374100e-003  5.0836973e-002  7.5870598e-006  5.0836973e-002  3.7991077e-001  3.7991077e-001  3.8120297e-001 
 6.8878975e+000  6.2412350e-003  4.9940415e-002  9.5327232e-006  4.9940415e-002  3.7654266e-001  3.7654266e-001  3.7778968e-001 
 7.0715742e+000  6.2450599e-003  4.8839431e-002  1.2166128e-005  4.8839431e-002  3.7358728e-001  3.7358728e-001  3.7477994e-001 
 7.2552519e+000  6.2488876e-003  4.7452580e-002  1.5840356e-005  4.7452584e-002  3.7117317e-001  3.7117317e-001  3.7229905e-001 
 7.4389291e+000  6.2527098e-003  4.5672316e-002  2.0421741e-005  4.5672320e-002  3.6947387e-001  3.6947387e-001  3.7051687e-001 
 7.6226058e+000  6.2565347e-003  4.3372005e-002  2.6362395e-005  4.3372013e-002  3.6870807e-001  3.6870807e-001  3.6964864e-001 
 7.8062830e+000  6.2603597e-003  4.0365979e-002  3.3946577e-005  4.0365994e-002  3.6912814e-001  3.6912814e-001  3.6994284e-001 
 7.9899602e+000  6.2641827e-003  3.6541179e-002  4.1418443e-005  3.6541201e-002  3.7107307e-001  3.7107307e-001  3.7174070e-001 
 8.1736374e+000  6.2680100e-003  3.1595882e-002  5.1048268e-005  3.1595923e-002  3.7469682e-001  3.7469682e-001  3.7519598e-001 
 8.3573141e+000  6.2718373e-003  2.5782069e-002  5.2371026e-005  2.5782123e-002  3.8047493e-001  3.8047493e-001  3.8080728e-001 
 8.5409908e+000  6.2755425e-003  1.8643949e-002  6.1029241e-005  1.8644050e-002  3.8763979e-001  3.8763979e-001  3.8781360e-001 
 8.7246675e+000  6.2793675e-003  1.1695727e-002  3.6353686e-005  1.1695784e-002  3.9703175e-001  3.9703175e-001  3.9710015e-001 
 8.9083462e+000  6.2833102e-003  4.5734411e-003  4.3854056e-005  4.5736516e-003  4.0530223e-001  4.0530223e-001  4.0531269e-001 
 9.1117964e+000  1.2539713e-002 -2.3731072e-003 -1.1248584e-004  2.3757718e-003  4.1495129e-001  4.1495129e-001  4.1495413e-001 
 9.3336105e+000  3.7507229e-002 -3.7187727e-003 -6.4527668e-004  3.7743412e-003  4.2437509e-001  4.2437509e-001  4.2438221e-001 
 9.5512314e+000  8.7156050e-002 -2.9447488e-003 -8.4885966e-004  3.0646548e-003  4.3063316e-001  4.3063316e-001  4.3063787e-001 
 9.7619219e+000  1.6086137e-001 -2.7476563e-003 -1.1417650e-003  2.9754399e-003  4.3728244e-001  4.3728244e-001  4.3728688e-001 
 9.9630308e+000  2.5769609e-001 -1.7543152e-003 -9.7589742e-004  2.0074854e-003  4.4323239e-001  4.4323239e-001  4.4323441e-001 
 1.0152030e+001  3.7644216e-001 -5.6629762e-004 -4.1286874e-004  7.0082350e-004  4.4916579e-001  4.4916579e-001  4.4916603e-001 
 1.0326543e+001  5.1560581e-001  1.1135004e-003  9.7662024e-004  1.4811044e-003  4.5461452e-001  4.5461452e-001  4.5461562e-001 
 1.0484373e+001  6.7343664e-001  3.1377608e-003  3.4819085e-003  4.6871346e-003  4.5935863e-001  4.5935863e-001  4.5936963e-001 
 1.0623537e+001  8.4794956e-001  5.4290090e-003  7.6049240e-003  9.3439287e-003  4.6265137e-001  4.6265137e-001  4.6269503e-001 
 1.0742285e+001  1.0369492e+000  7.9244673e-003  1.4268801e-002  1.6321637e-002  4.6350661e-001  4.6350661e-001  4.6363980e-001 
 1.0839120e+001  1.2380590e+000  9.9035306e-003  2.3812884e-002  2.5790179e-002  4.5960400e-001  4.5960400e-001  4.5993656e-001 
 1.0912825e+001  1.4487495e+000  1.1277568e-002  3.9023001e-002  4.0619921e-002  4.4903657e-001  4.4903657e-001  4.4986156e-001 
 1.0962473e+001  1.6663703e+000  1.0114722e-002  5.9489042e-002  6.0342800e-002  4.2395356e-001  4.2395356e-001  4.2577419e-001 
 1.0987440e+001  1.8881841e+000  5.4630684e-003  9.6524775e-002  9.6679248e-002  3.7932292e-001  3.7932292e-001  3.8399637e-001 
 1.0993697e+001  2.1018355e+000  1.1665886e-004  1.4307578e-001  1.4307582e-001  2.8156877e-001  2.8156877e-001  2.9180411e-001 
 1.0993702e+001  2.3059216e+000 -1.8984894e-004  1.6301146e-001  1.6301157e-001  1.5846334e-001  1.5846334e-001  1.7174973e-001 
 1.0993705e+001  2.5100067e+000 -1.9928993e-004  1.5931092e-001  1.5931104e-001  7.1568869e-002  7.1568869e-002  8.4258877e-002 
 1.0993708e+001  2.7140920e+000 -2.0962473e-004  1.4942798e-001  1.4942813e-001  6.1107911e-003  6.1107911e-003  1.7275173e-002 
 1.0993712e+001  2.9181781e+000 -1.9487845e-004  1.3583283e-001  1.3583297e-001 -3.9289210e-002 -3.9289210e-002 -3.0063912e-002 
 1.0993717e+001  3.1222639e+000 -1.6029392e-004  1.2105799e-001  1.2105809e-001 -6.7529261e-002 -6.7529261e-002 -6.0201731e-002 
 1.0993723e+001  3.3263495e+000 -1.2900587e-004  1.0692390e-001  1.0692398e-001 -8.3281077e-002 -8.3281077e-002 -7.7564709e-002 
 1.0993728e+001  3.5304356e+000 -1.0228348e-004  9.4077125e-002  9.4077177e-002 -9.0256475e-002 -9.0256475e-002 -8.5831217e-002 
 1.0993731e+001  3.7345214e+000 -8.4158026e-005  8.2674988e-002  8.2675032e-002 -9.1102622e-002 -9.1102622e-002 -8.7685041e-002 
 1.0993732e+001  3.9386075e+000 -6.5393237e-005  7.2734185e-002  7.2734214e-002 -8.7752879e-002 -8.7752879e-002 -8.5107744e-002 
 1.0993737e+001  4.1426930e+000 -5.2496609e-005  6.4124681e-002  6.4124703e-002 -8.1673242e-002 -8.1673242e-002 -7.9617254e-002 
 1.0993742e+001  4.3467789e+000 -4.1295098e-005  5.6774154e-002  5.6774169e-002 -7.3867977e-002 -7.3867977e-002 -7.2256327e-002 
 1.0993748e+001  4.5508642e+000 -3.2187589e-005  5.0575823e-002  5.0575834e-002 -6.5122128e-002 -6.5122128e-002 -6.3843168e-002 
 1.0993752e+001  4.7549500e+000 -2.4282612e-005  4.5413703e-002  4.5413710e-002 -5.5948194e-002 -5.5948194e-002 -5.4916993e-002 
 1.0993757e+001  4.9590359e+000 -1.7184246e-005  4.1209269e-002  4.1209273e-002 -4.6753205e-002 -4.6753205e-002 -4.5904104e-002 
 1.0993760e+001  5.1631222e+000 -1.3072924e-005  3.7850846e-002  3.7850849e-002 -3.7839137e-002 -3.7839137e-002 -3.7122793e-002 
 1.0993763e+001  5.3672075e+000 -7.3936840e-006  3.5244215e-002  3.5244215e-002 -2.9355856e-002 -2.9355856e-002 -2.8734779e-002 
 1.0993768e+001  5.5712934e+000 -4.3959521e-006  3.3270836e-002  3.3270836e-002 -2.1469006e-002 -2.1469006e-002 -2.0915532e-002 
 1.0993773e+001  5.7753792e+000 -1.1392365e-006  3.1856038e-002  3.1856038e-002 -1.4224665e-002 -1.4224665e-002 -1.3717262e-002 
 1.0993777e+001  5.9794650e+000  8.6816419e-007  3.0910250e-002  3.0910250e-002 -7.6931897e-003 -7.6931897e-003 -7.2154677e-003 
 1.0993782e+001  6.1835508e+000  2.9462356e-006  3.0344123e-002  3.0344123e-002 -1.8643920e-003 -1.8643920e-003 -1.4040091e-003 
 1.0993785e+001  6.3876362e+000  2.7580165e-006  3.0110270e-002  3.0110270e-002  3.2578667e-003  3.2578667e-003  3.7111810e-003 
 1.0993788e+001  6.5917220e+000  4.0054920e-006  3.0116376e-002  3.0116376e-002  7.6789148e-003  7.6789148e-003  8.1324130e-003 
 1.0993793e+001  6.7958078e+000  5.4127181e-006  3.0292902e-002  3.0292902e-002  1.1445261e-002  1.1445261e-002  1.1904091e-002 
 1.0993797e+001  6.9998932e+000  5.9656636e-006  3.0607391e-002  3.0607391e-002  1.4583438e-002  1.4583438e-002  1.5051844e-002 
 1.0993803e+001  7.2039790e+000  5.6538511e-006  3.1003714e-002  3.1003714e-002  1.7133810e-002  1.7133810e-002  1.7614424e-002 
 1.0993808e+001  7.4080648e+000  5.8275150e-006  3.1458870e-002  3.1458870e-002  1.9154800e-002  1.9154800e-002  1.9649630e-002 
 1.0993813e+001  7.6121511e+000  5.6665399e-006  3.1938665e-002  3.1938665e-002  2.0678287e-002  2.0678287e-002  2.1188326e-002 
 1.0993814e+001  7.8162370e+000  4.6305654e-006  3.2430187e-002  3.2430187e-002  2.1766616e-002  2.1766616e-002  2.2292474e-002 
 1.0993817e+001  8.0203228e+000  5.0825611e-006  3.2914717e-002  3.2914717e-002  2.2461327e-002  2.2461327e-002  2.3003016e-002 
 1.0993822e+001  8.2244081e+000  4.1471981e-006  3.3354353e-002  3.3354353e-002  2.2804013e-002  2.2804013e-002  2.3360269e-002 
 1.0993828e+001  8.4284945e+000  3.9032079e-006  3.3766042e-002  3.3766042e-002  2.2851238e-002  2.2851238e-002  2.3421312e-002 
 1.0993833e+001  8.6325798e+000  3.2180460e-006  3.4139074e-002  3.4139074e-002  2.2622863e-002  2.2622863e-002  2.3205601e-002 
 1.0993837e+001  8.8366661e+000  3.3005867e-006  3.4480765e-002  3.4480765e-002  2.2175368e-002  2.2175368e-002  2.2769829e-002 
 1.0993843e+001  9.0407515e+000  2.7069029e-006  3.4781471e-002  3.4781471e-002  2.1508357e-002  2.1508357e-002  2.2113232e-002 
 1.0993845e+001  9.2448368e+000  2.1193841e-006  3.5060577e-002  3.5060577e-002  2.0685099e-002  2.0685099e-002  2.1299722e-002 
 1.0993848e+001  9.4489231e+000  2.2296945e-006  3.5308830e-002  3.5308830e-002  1.9694734e-002  1.9694734e-002  2.0318091e-002 
 1.0993853e+001  9.6530094e+000  1.8707867e-006  3.5511345e-002  3.5511345e-002  1.8584693e-002  1.8584693e-002  1.9215221e-002 
 1.0993857e+001  9.8570948e+000  1.5445843e-006  3.5690885e-002  3.5690885e-002  1.7351048e-002  1.7351048e-002  1.7987968e-002 
 1.0993862e+001  1.0061182e+001  1.4663786e-006  3.5843413e-002  3.5843413e-002  1.6018109e-002  1.6018109e-002  1.6660485e-002 
 1.0993868e+001  1.0265267e+001  1.4431647e-006  3.5972074e-002  3.5972074e-002  1.4595210e-002  1.4595210e-002  1.5242205e-002 
 1.0993870e+001  1.0469353e+001  9.9840963e-007  3.6105108e-002  3.6105108e-002  1.3098778e-002  1.3098778e-002  1.3750568e-002 
 1.0993873e+001  1.0673440e+001  1.1146299e-006  3.6206312e-002  3.6206312e-002  1.1512372e-002  1.1512372e-002  1.2167821e-002 
 1.0993877e+001  1.0877527e+001  9.6475333e-007  3.6300778e-002  3.6300778e-002  9.8973932e-003  9.8973932e-003  1.0556267e-002 
 1.0993882e+001  1.1081610e+001  4.7662613e-007  3.6344483e-002  3.6344483e-002  8.1708953e-003  8.1708953e-003  8.8313557e-003 
 1.0993887e+001  1.1285692e+001  1.2737596e-006  3.6444847e-002  3.6444847e-002  6.4892522e-003  6.4892522e-003  7.1533658e-003 
 1.0993893e+001  1.1489778e+001 -7.0457946e-007  3.6421344e-002  3.6421344e-002  4.5832153e-003  4.5832153e-003  5.2464725e-003 
 1.0993895e+001  1.1693865e+001  2.5778004e-006  3.6550071e-002  3.6550071e-002  2.9413463e-003  2.9413463e-003  3.6093001e-003 
 1.0993897e+001  1.1897955e+001 -3.7440636e-006  3.6546260e-002  3.6546260e-002  8.1291486e-004  8.1291486e-004  1.4807294e-003 
 1.0993900e+001  1.2000000e+001 -3.7343539e-006  3.6546260e-002  3.6546260e-002  0.0000000e+000  0.0000000e+000  6.6781457e-004 
 0.0000000e+000  1.8721581e-002  1.0000000e+000  0.0000000e+000  1.0000000e+000  7.8326923e-001  7.8326923e-001  1.2832692e+000 