Variables = "x","y", "Velocity_x", "Velocity_y", "Velocity_whole value", "Pressure", "Absolute pressure", "Total pressure"
Zone i=121, j=41
0	0	1040	1.5E-14	1040	100000	100000	100000
0.025	0	1040	1.01E-14	1040	100000	100000	100000
0.05	0	1040	2.53E-15	1040	100000	100000	100000
0.075	0	1040	4.43E-27	1040	100000	100000	100000
0.1	0	1040	-7.5E-15	1040	100000	100000	100000
0.125	0	1040	-1.4E-14	1040	100000	100000	100000
0.15	0	1040	-7E-15	1040	100000	100000	100000
0.175	0	1040	1.19E-14	1040	100000	100000	100000
0.2	0	1040	1.77E-14	1040	100000	100000	100000
0.225	0	1040	1.4E-14	1040	100000	100000	100000
0.25	0	1040	9.04E-15	1040	100000	100000	100000
0.275	0	1040	2.64E-14	1040	100000	100000	100000
0.3	0	1040	9.5E-14	1040	100000	100000	100000
0.325	0	1040	1.21E-13	1040	100000	100000	100000
0.35	0	1040	9.21E-14	1040	100000	100000	100000
0.375	0	1040	2.94E-14	1040	100000	100000	100000
0.4	0	1040	-7.7E-14	1040	100000	100000	100000
0.425	0	1040	-1E-13	1040	100000	100000	100000
0.45	0	1040	-2.4E-14	1040	100000	100000	100000
0.475	0	1040	5.8E-14	1040	100000	100000	100000
0.5	0	1025.852	6.385316	1025.871	118835.2	118835.2	118835.2
0.525	0.008333	992.3087	28.22654	992.7101	167994.7	167994.7	167994.7
0.55	0.016667	951.7963	66.54351	954.1196	235175.5	235175.5	235175.5
0.575	0.025	909.1561	116.3751	916.5741	310918.6	310918.6	310918.6
0.6	0.033333	867.7484	170.8507	884.4079	381724.7	381724.7	381724.7
0.625	0.041667	836.2025	213.9591	863.1414	433520.4	433520.4	433520.4
0.65	0.05	820.4463	240.8961	855.0807	450406	450406	450406
0.675	0.058333	818.0911	262.901	859.2962	436885	436885	436885
0.7	0.066667	824.3068	279.9566	870.5501	409843.1	409843.1	409843.1
0.725	0.075	834.5651	289.6752	883.4085	377580.9	377580.9	377580.9
0.75	0.083333	843.6929	292.8847	893.084	351790	351790	351790
0.775	0.091667	849.0729	291.6974	897.7818	339344	339344	339344
0.8	0.1	851.3491	288.8409	899.013	337736.2	337736.2	337736.2
0.825	0.108333	851.3048	285.124	897.7837	340124.9	340124.9	340124.9
0.85	0.116667	850.6757	283.0145	896.519	343103.2	343103.2	343103.2
0.875	0.125	850.1738	282.9336	896.0173	344541.2	344541.2	344541.2
0.9	0.133333	850.0846	283.2547	896.0341	344354.3	344354.3	344354.3
0.925	0.141667	850.2587	283.5981	896.3079	343736.9	343736.9	343736.9
0.95	0.15	850.416	283.6666	896.4788	343387.5	343387.5	343387.5
0.975	0.158333	850.434	283.4798	896.4367	343604.9	343604.9	343604.9
1	0.166667	850.2996	283.239	896.2331	344074.7	344074.7	344074.7
1.025	0.175	850.0792	283.1361	895.9915	344600.3	344600.3	344600.3
1.05	0.183333	849.9517	283.1816	895.8849	344858.6	344858.6	344858.6
1.075	0.191667	849.4545	283.3137	895.4549	345041.1	345041.1	345041.1
1.1	0.2	874.0939	280.6793	918.0529	291856.2	291856.2	291856.2
1.125	0.2	925.67	270.0691	964.2626	193430.4	193430.4	193430.4
1.15	0.2	970.4757	247.4879	1001.536	124995.6	124995.6	124995.6
1.175	0.2	998.7913	211.4473	1020.928	91312.81	91312.81	91312.81
1.2	0.2	1012.851	165.2443	1026.242	77497.13	77497.13	77497.13
1.225	0.2	1016.417	116.6047	1023.084	74483.45	74483.45	74483.45
1.25	0.2	1014.27	72.95663	1016.89	76389.98	76389.98	76389.98
1.275	0.2	1010.486	38.60283	1011.223	79927.84	79927.84	79927.84
1.3	0.2	1006.253	14.07641	1006.351	84320.34	84320.34	84320.34
1.325	0.2	1002.138	-0.75326	1002.138	89006.75	89006.75	89006.75
1.35	0.2	998.2623	-8.02122	998.2946	93440.52	93440.52	93440.52
1.375	0.2	994.9852	-10.9459	995.0454	97118.9	97118.9	97118.9
1.4	0.2	992.4791	-11.0534	992.5407	99971.44	99971.44	99971.44
1.425	0.2	991.0851	-9.94377	991.135	102147.5	102147.5	102147.5
1.45	0.2	990.8756	-8.13099	990.909	103839.9	103839.9	103839.9
1.475	0.2	991.0392	-6.18683	991.0585	104798.4	104798.4	104798.4
1.5	0.2	990.7531	-4.6329	990.7639	105054.1	105054.1	105054.1
1.525	0.2	990.0077	-3.41925	990.0136	104970.4	104970.4	104970.4
1.55	0.2	989.3989	-2.14538	989.4012	104714.6	104714.6	104714.6
1.575	0.2	989.2002	-0.77925	989.2005	104520	104520	104520
1.6	0.2	989.2437	0.076855	989.2437	104538.1	104538.1	104538.1
1.625	0.2	989.653	0.269075	989.6531	104741	104741	104741
1.65	0.2	990.3485	0.231621	990.3485	104930.1	104930.1	104930.1
1.675	0.2	990.8665	0.188395	990.8665	104946.5	104946.5	104946.5
1.7	0.2	990.9656	0.216463	990.9657	104799.4	104799.4	104799.4
1.725	0.2	990.4243	0.301991	990.4244	104480.1	104480.1	104480.1
1.75	0.2	989.6294	0.353917	989.6295	104198.4	104198.4	104198.4
1.775	0.2	989.2388	0.324107	989.2388	104130.2	104130.2	104130.2
1.8	0.2	989.2308	0.207924	989.2308	104232.7	104232.7	104232.7
1.825	0.2	989.7334	0.084635	989.7334	104517.6	104517.6	104517.6
1.85	0.2	990.5689	0.041041	990.5689	104832.8	104832.8	104832.8
1.875	0.2	991.0442	0.046192	991.0442	104951.9	104951.9	104951.9
1.9	0.2	991.1406	0.065202	991.1406	104895.6	104895.6	104895.6
1.925	0.2	991.0245	0.083197	991.0245	104665.1	104665.1	104665.1
1.95	0.2	990.5165	0.114126	990.5165	104209.8	104209.8	104209.8
1.975	0.2	990.0457	0.21061	990.0457	103811.4	103811.4	103811.4
2	0.2	990.0236	0.326976	990.0237	103677.4	103677.4	103677.4
2.025	0.2	990.3452	0.38732	990.3453	103704.9	103704.9	103704.9
2.05	0.2	990.8823	0.398216	990.8824	103860.9	103860.9	103860.9
2.075	0.2	991.2249	0.360011	991.2249	103993.6	103993.6	103993.6
2.1	0.2	991.2727	0.271654	991.2727	104000	104000	104000
2.125	0.2	991.0817	0.18045	991.0817	103885.9	103885.9	103885.9
2.15	0.2	990.6379	0.13346	990.6379	103660.1	103660.1	103660.1
2.175	0.2	990.3564	0.11901	990.3565	103513	103513	103513
2.2	0.2	990.3941	0.11217	990.3941	103505.8	103505.8	103505.8
2.225	0.2	990.6969	0.093797	990.6969	103617.1	103617.1	103617.1
2.25	0.2	991.2578	0.023445	991.2578	103835.7	103835.7	103835.7
2.275	0.2	991.6527	-0.06528	991.6527	103966.2	103966.2	103966.2
2.3	0.2	991.7295	-0.10739	991.7295	103933	103933	103933
2.325	0.2	991.5045	-0.10284	991.5045	103734.4	103734.4	103734.4
2.35	0.2	990.9666	-0.01432	990.9666	103411.2	103411.2	103411.2
2.375	0.2	990.6017	0.138329	990.6018	103201.9	103201.9	103201.9
2.4	0.2	990.561	0.254822	990.5611	103163.5	103163.5	103163.5
2.425	0.2	990.675	0.307992	990.6751	103237.4	103237.4	103237.4
2.45	0.2	991.0486	0.309544	991.0486	103471.7	103471.7	103471.7
2.475	0.2	991.3862	0.22943	991.3863	103713.4	103713.4	103713.4
2.5	0.2	991.4362	0.086238	991.4362	103809.1	103809.1	103809.1
2.525	0.2	991.3179	-0.03207	991.3179	103803	103803	103803
2.55	0.2	991.0922	-0.0934	991.0922	103713.3	103713.3	103713.3
2.575	0.2	990.9531	-0.11825	990.9531	103619.1	103619.1	103619.1
2.6	0.2	990.9906	-0.1243	990.9906	103583.4	103583.4	103583.4
2.625	0.2	991.1587	-0.11741	991.1587	103580.5	103580.5	103580.5
2.65	0.2	991.3502	-0.09833	991.3502	103586.1	103586.1	103586.1
2.675	0.2	991.4342	-0.07442	991.4342	103564.5	103564.5	103564.5
2.7	0.2	991.3889	-0.04979	991.3889	103487	103487	103487
2.725	0.2	991.136	-0.01803	991.136	103341.3	103341.3	103341.3
2.75	0.2	990.8571	0.023967	990.8571	103212.8	103212.8	103212.8
2.775	0.2	990.7685	0.063849	990.7685	103170.6	103170.6	103170.6
2.8	0.2	990.7828	0.095167	990.7828	103177.9	103177.9	103177.9
2.825	0.2	990.9319	0.123263	990.9319	103252.1	103252.1	103252.1
2.85	0.2	991.3351	0.142397	991.3351	103442.2	103442.2	103442.2
2.875	0.2	991.7074	0.140903	991.7074	103631.8	103631.8	103631.8
2.9	0.2	991.8147	0.095944	991.8147	103715.1	103715.1	103715.1
2.925	0.2	991.8076	0.018723	991.8076	103736.2	103736.2	103736.2
2.95	0.2	991.7186	-0.03359	991.7186	103700.1	103700.1	103700.1
2.975	0.2	991.3929	-0.05455	991.3929	103535.3	103535.3	103535.3
3	0.2	991.1398	-0.06263	991.1398	103406.7	103406.7	103406.7
0	0.025	1040	1.17E-14	1040	100000	100000	100000
0.025	0.025	1040	7.38E-15	1040	100000	100000	100000
0.05	0.025	1040	-1.2E-14	1040	100000	100000	100000
0.075	0.025	1040	-2.4E-14	1040	100000	100000	100000
0.1	0.025	1040	-1.8E-14	1040	100000	100000	100000
0.125	0.025	1040	-6.6E-15	1040	100000	100000	100000
0.15	0.025	1040	9.6E-16	1040	100000	100000	100000
0.175	0.025	1040	8.73E-15	1040	100000	100000	100000
0.2	0.025	1040	2.02E-14	1040	100000	100000	100000
0.225	0.025	1040	2.52E-14	1040	100000	100000	100000
0.25	0.025	1040	-4.3E-15	1040	100000	100000	100000
0.275	0.025	1040	-1.6E-14	1040	100000	100000	100000
0.3	0.025	1040	4.53E-14	1040	100000	100000	100000
0.325	0.025	1040	1E-13	1040	100000	100000	100000
0.35	0.025	1040	9.71E-14	1040	100000	100000	100000
0.375	0.025	1040	4.31E-14	1040	100000	100000	100000
0.4	0.025	1040	-3.5E-14	1040	100000	100000	100000
0.425	0.025	1040	-5.4E-14	1040	100000	100000	100000
0.45	0.025	1040	2.66E-14	1040	100000	100000	100000
0.475	0.025	1040	1.14E-13	1040	100000	100000	100000
0.5	0.025	1032.725	3.510317	1032.731	109567.8	109567.8	109567.8
0.525	0.033125	1014.785	16.29683	1014.916	135070.6	135070.6	135070.6
0.55	0.04125	990.7403	41.54876	991.6111	171875	171875	171875
0.575	0.049375	960.3287	81.01386	963.7398	218260.3	218260.3	218260.3
0.6	0.0575	922.4086	135.3636	932.288	271749.8	271749.8	271749.8
0.625	0.065625	880.6753	196.693	902.373	327180.4	327180.4	327180.4
0.65	0.07375	845.1503	249.627	881.2449	369498.9	369498.9	369498.9
0.675	0.081875	823.7594	285.2764	871.7581	388399.8	388399.8	388399.8
0.7	0.09	818.7479	301.5918	872.5284	386205.9	386205.9	386205.9
0.725	0.098125	824.3335	304.0518	878.6201	371831	371831	371831
0.75	0.10625	831.9919	299.1371	884.1344	357280.4	357280.4	357280.4
0.775	0.114375	838.9827	290.748	887.9338	348107.9	348107.9	348107.9
0.8	0.1225	843.1445	283.7449	889.6088	344769.8	344769.8	344769.8
0.825	0.130625	844.6309	280.1714	889.8861	343954.5	343954.5	343954.5
0.85	0.13875	845.0084	279.9331	890.1695	343676.3	343676.3	343676.3
0.875	0.146875	844.7496	280.8127	890.2009	343560.9	343560.9	343560.9
0.9	0.155	844.6516	281.4992	890.3248	343481.3	343481.3	343481.3
0.925	0.163125	844.6624	281.7803	890.4239	343492.3	343492.3	343492.3
0.95	0.17125	844.7211	281.6375	890.4344	343694.8	343694.8	343694.8
0.975	0.179375	844.7798	281.3637	890.4036	344018.7	344018.7	344018.7
1	0.1875	844.8142	281.1931	890.3823	344261.2	344261.2	344261.2
1.025	0.195625	844.7695	281.2512	890.3582	344460.1	344460.1	344460.1
1.05	0.20375	844.7148	281.4443	890.3674	344567.9	344567.9	344567.9
1.075	0.211875	844.1832	281.6681	889.9338	344775.3	344775.3	344775.3
1.1	0.22	862.5314	275.1413	905.3525	310161.4	310161.4	310161.4
1.125	0.22	904.7255	253.6597	939.6124	239648.2	239648.2	239648.2
1.15	0.22	947.0008	218.0797	971.7866	179943.8	179943.8	179943.8
1.175	0.22	978.2606	174.0291	993.6196	141843.4	141843.4	141843.4
1.2	0.22	997.655	127.7958	1005.807	119769.4	119769.4	119769.4
1.225	0.22	1007.865	85.1412	1011.455	107773.8	107773.8	107773.8
1.25	0.22	1012.648	49.79692	1013.872	101388	101388	101388
1.275	0.22	1015.081	22.88582	1015.339	97884.02	97884.02	97884.02
1.3	0.22	1016.124	4.188039	1016.133	96352.01	96352.01	96352.01
1.325	0.22	1016.332	-7.25022	1016.358	96177.06	96177.06	96177.06
1.35	0.22	1015.767	-12.9383	1015.85	96740.66	96740.66	96740.66
1.375	0.22	1014.636	-14.4243	1014.739	97738.52	97738.52	97738.52
1.4	0.22	1013.403	-13.2987	1013.49	99044	99044	99044
1.425	0.22	1012.477	-11.0051	1012.537	100372.6	100372.6	100372.6
1.45	0.22	1012.027	-8.28681	1012.061	101685.6	101685.6	101685.6
1.475	0.22	1011.805	-5.93254	1011.822	102717.7	102717.7	102717.7
1.5	0.22	1011.373	-4.35458	1011.382	103350.6	103350.6	103350.6
1.525	0.22	1010.549	-3.19371	1010.554	103734.5	103734.5	103734.5
1.55	0.22	1009.552	-1.91468	1009.554	103887.1	103887.1	103887.1
1.575	0.22	1008.9	-0.39952	1008.9	103937.6	103937.6	103937.6
1.6	0.22	1008.769	0.730917	1008.769	104079.1	104079.1	104079.1
1.625	0.22	1009.049	1.064766	1009.049	104346.4	104346.4	104346.4
1.65	0.22	1009.612	0.949983	1009.613	104621.4	104621.4	104621.4
1.675	0.22	1010.024	0.633556	1010.024	104752.2	104752.2	104752.2
1.7	0.22	1010.056	0.352346	1010.056	104710	104710	104710
1.725	0.22	1009.611	0.283523	1009.611	104514.8	104514.8	104514.8
1.75	0.22	1008.905	0.35739	1008.905	104282.3	104282.3	104282.3
1.775	0.22	1008.514	0.440762	1008.514	104177.7	104177.7	104177.7
1.8	0.22	1008.497	0.439955	1008.497	104220.7	104220.7	104220.7
1.825	0.22	1008.886	0.428189	1008.886	104407.1	104407.1	104407.1
1.85	0.22	1009.611	0.437883	1009.612	104657	104657	104657
1.875	0.22	1010.089	0.436537	1010.089	104775.7	104775.7	104775.7
1.9	0.22	1010.201	0.429072	1010.201	104735.1	104735.1	104735.1
1.925	0.22	1010.072	0.389104	1010.072	104537.5	104537.5	104537.5
1.95	0.22	1009.523	0.351374	1009.523	104155.4	104155.4	104155.4
1.975	0.22	1009.02	0.432816	1009.02	103839.1	103839.1	103839.1
2	0.22	1008.962	0.570661	1008.962	103746.5	103746.5	103746.5
2.025	0.22	1009.206	0.640136	1009.206	103779.7	103779.7	103779.7
2.05	0.22	1009.723	0.653837	1009.723	103917.7	103917.7	103917.7
2.075	0.22	1010.146	0.60191	1010.147	104033.1	104033.1	104033.1
2.1	0.22	1010.263	0.459813	1010.263	104028.6	104028.6	104028.6
2.125	0.22	1010.113	0.296348	1010.113	103899.1	103899.1	103899.1
2.15	0.22	1009.703	0.200857	1009.703	103677.4	103677.4	103677.4
2.175	0.22	1009.43	0.172717	1009.43	103544.9	103544.9	103544.9
2.2	0.22	1009.451	0.174002	1009.451	103539.9	103539.9	103539.9
2.225	0.22	1009.703	0.168505	1009.703	103638.8	103638.8	103638.8
2.25	0.22	1010.188	0.088203	1010.188	103834.3	103834.3	103834.3
2.275	0.22	1010.531	-0.07082	1010.531	103953	103953	103953
2.3	0.22	1010.593	-0.19806	1010.593	103927.2	103927.2	103927.2
2.325	0.22	1010.395	-0.23711	1010.395	103761.6	103761.6	103761.6
2.35	0.22	1009.893	-0.15895	1009.893	103474.6	103474.6	103474.6
2.375	0.22	1009.524	0.054451	1009.524	103275.8	103275.8	103275.8
2.4	0.22	1009.467	0.296779	1009.467	103236.9	103236.9	103236.9
2.425	0.22	1009.562	0.471655	1009.562	103294.4	103294.4	103294.4
2.45	0.22	1009.888	0.549189	1009.888	103473.2	103473.2	103473.2
2.475	0.22	1010.193	0.49963	1010.193	103652.4	103652.4	103652.4
2.5	0.22	1010.252	0.321719	1010.252	103721.2	103721.2	103721.2
2.525	0.22	1010.177	0.097335	1010.177	103720.9	103720.9	103720.9
2.55	0.22	1010.02	-0.07391	1010.02	103660.3	103660.3	103660.3
2.575	0.22	1009.925	-0.17122	1009.925	103597	103597	103597
2.6	0.22	1009.971	-0.21514	1009.971	103579.8	103579.8	103579.8
2.625	0.22	1010.128	-0.2232	1010.128	103592.3	103592.3	103592.3
2.65	0.22	1010.292	-0.20705	1010.292	103607.3	103607.3	103607.3
2.675	0.22	1010.353	-0.1768	1010.353	103589	103589	103589
2.7	0.22	1010.29	-0.12966	1010.29	103514	103514	103514
2.725	0.22	1010.002	-0.06062	1010.002	103365.3	103365.3	103365.3
2.75	0.22	1009.686	0.014869	1009.686	103233.9	103233.9	103233.9
2.775	0.22	1009.573	0.080004	1009.573	103192.5	103192.5	103192.5
2.8	0.22	1009.573	0.14035	1009.573	103202.6	103202.6	103202.6
2.825	0.22	1009.709	0.203135	1009.709	103280.5	103280.5	103280.5
2.85	0.22	1010.099	0.247153	1010.099	103465.5	103465.5	103465.5
2.875	0.22	1010.466	0.248948	1010.466	103637.1	103637.1	103637.1
2.9	0.22	1010.583	0.189457	1010.583	103699.8	103699.8	103699.8
2.925	0.22	1010.595	0.084045	1010.595	103704.9	103704.9	103704.9
2.95	0.22	1010.537	-0.01782	1010.537	103654.8	103654.8	103654.8
2.975	0.22	1010.266	-0.11446	1010.266	103510.3	103510.3	103510.3
3	0.22	1010.047	-0.16563	1010.047	103409.4	103409.4	103409.4
0	0.05	1040	7.89E-15	1040	100000	100000	100000
0.025	0.05	1040	4.3E-15	1040	100000	100000	100000
0.05	0.05	1040	-1.6E-14	1040	100000	100000	100000
0.075	0.05	1040	-3.1E-14	1040	100000	100000	100000
0.1	0.05	1040	-1.9E-14	1040	100000	100000	100000
0.125	0.05	1040	-4.7E-15	1040	100000	100000	100000
0.15	0.05	1040	6.93E-15	1040	100000	100000	100000
0.175	0.05	1040	2.83E-14	1040	100000	100000	100000
0.2	0.05	1040	6.6E-14	1040	100000	100000	100000
0.225	0.05	1040	7.57E-14	1040	100000	100000	100000
0.25	0.05	1040	7.73E-15	1040	100000	100000	100000
0.275	0.05	1040	-6.1E-14	1040	100000	100000	100000
0.3	0.05	1040	-4.8E-14	1040	100000	100000	100000
0.325	0.05	1040	4.75E-14	1040	100000	100000	100000
0.35	0.05	1040	9.42E-14	1040	100000	100000	100000
0.375	0.05	1040	7.58E-14	1040	100000	100000	100000
0.4	0.05	1040	9.6E-14	1040	100000	100000	100000
0.425	0.05	1040	1.29E-13	1040	100000	100000	100000
0.45	0.05	1040	1.76E-13	1040	100000	100000	100000
0.475	0.05	1040	1.92E-13	1040	100000	100000	100000
0.5	0.05	1039.797	0.320882	1039.797	100151.8	100151.8	100151.8
0.525	0.057917	1038.614	2.211732	1038.616	101086.8	101086.8	101086.8
0.55	0.065833	1034.755	8.420136	1034.79	104355.2	104355.2	104355.2
0.575	0.07375	1025.383	23.4429	1025.651	113092.1	113092.1	113092.1
0.6	0.081667	1006.818	52.81786	1008.203	132262.3	132262.3	132262.3
0.625	0.089583	974.3248	103.1345	979.7681	167385.2	167385.2	167385.2
0.65	0.0975	928.7489	169.6958	944.1246	219046.7	219046.7	219046.7
0.675	0.105417	878.0502	235.2051	909.0069	281031.9	281031.9	281031.9
0.7	0.113333	838.1752	280.9903	884.021	334654.3	334654.3	334654.3
0.725	0.12125	818.6794	297.377	871.0161	367113.4	367113.4	367113.4
0.75	0.129167	815.9327	295.0331	867.6352	376297.9	376297.9	376297.9
0.775	0.137083	821.9525	288.0085	870.9505	369467.9	369467.9	369467.9
0.8	0.145	828.4504	281.9278	875.1077	359495.6	359495.6	359495.6
0.825	0.152917	833.621	279.5215	879.2362	349732.2	349732.2	349732.2
0.85	0.160833	836.5074	279.5551	881.984	343663.8	343663.8	343663.8
0.875	0.16875	837.2285	279.6044	882.6835	342106.9	342106.9	342106.9
0.9	0.176667	837.2711	279.3427	882.6411	342608.6	342608.6	342608.6
0.925	0.184583	837.1169	278.9284	882.3637	343536.5	343536.5	343536.5
0.95	0.1925	837.0383	278.5544	882.171	344285	344285	344285
0.975	0.200417	837.1221	278.422	882.2087	344507.5	344507.5	344507.5
1	0.208333	837.2985	278.5104	882.404	344350.9	344350.9	344350.9
1.025	0.21625	837.4062	278.8057	882.5994	344124.1	344124.1	344124.1
1.05	0.224167	837.4148	279.085	882.6959	344052.4	344052.4	344052.4
1.075	0.232083	836.947	279.2576	882.3066	344320.5	344320.5	344320.5
1.1	0.24	845.3151	271.9279	887.9766	333011.8	333011.8	333011.8
1.125	0.24	870.247	247.5604	904.774	299573	299573	299573
1.15	0.24	904.4357	207.611	927.9581	253654.3	253654.3	253654.3
1.175	0.24	937.9762	161.2779	951.7405	209834.7	209834.7	209834.7
1.2	0.24	965.0947	117.501	972.2213	175462.8	175462.8	175462.8
1.225	0.24	985.1758	80.90932	988.4927	150626.5	150626.5	150626.5
1.25	0.24	999.7938	52.28494	1001.16	133069.8	133069.8	133069.8
1.275	0.24	1010.545	30.28153	1010.999	120551.9	120551.9	120551.9
1.3	0.24	1018.232	14.04493	1018.329	111720	111720	111720
1.325	0.24	1023.723	2.441333	1023.726	105626.2	105626.2	105626.2
1.35	0.24	1027.405	-5.53788	1027.42	101529.7	101529.7	101529.7
1.375	0.24	1029.161	-9.69112	1029.207	99082.09	99082.09	99082.09
1.4	0.24	1029.666	-10.7414	1029.722	98069.59	98069.59	98069.59
1.425	0.24	1029.529	-10.2778	1029.58	98136.4	98136.4	98136.4
1.45	0.24	1028.964	-9.27238	1029.006	98867.95	98867.95	98867.95
1.475	0.24	1028.317	-8.13609	1028.349	99896.9	99896.9	99896.9
1.5	0.24	1027.655	-7.06948	1027.679	100974.4	100974.4	100974.4
1.525	0.24	1026.842	-5.82304	1026.859	101945.8	101945.8	101945.8
1.55	0.24	1025.777	-4.11283	1025.785	102681.3	102681.3	102681.3
1.575	0.24	1024.813	-1.99986	1024.815	103142.5	103142.5	103142.5
1.6	0.24	1024.295	-0.00495	1024.295	103438.9	103438.9	103438.9
1.625	0.24	1024.097	0.992603	1024.098	103732.5	103732.5	103732.5
1.65	0.24	1024.17	0.996261	1024.171	104099.9	104099.9	104099.9
1.675	0.24	1024.359	0.498073	1024.359	104456.3	104456.3	104456.3
1.7	0.24	1024.437	0.013997	1024.437	104636	104636	104636
1.725	0.24	1024.277	-0.07874	1024.277	104617.8	104617.8	104617.8
1.75	0.24	1023.838	0.173443	1023.838	104455	104455	104455
1.775	0.24	1023.441	0.555918	1023.441	104256.7	104256.7	104256.7
1.8	0.24	1023.343	0.796514	1023.344	104168	104168	104168
1.825	0.24	1023.569	0.919744	1023.57	104201.9	104201.9	104201.9
1.85	0.24	1024.132	0.960416	1024.132	104327.1	104327.1	104327.1
1.875	0.24	1024.621	0.901297	1024.621	104425.9	104425.9	104425.9
1.9	0.24	1024.763	0.770474	1024.763	104412.7	104412.7	104412.7
1.925	0.24	1024.606	0.622122	1024.606	104276.5	104276.5	104276.5
1.95	0.24	1024.116	0.571095	1024.116	104040.1	104040.1	104040.1
1.975	0.24	1023.733	0.74057	1023.733	103878.7	103878.7	103878.7
2	0.24	1023.696	0.978717	1023.697	103849.4	103849.4	103849.4
2.025	0.24	1023.879	1.078808	1023.879	103897.1	103897.1	103897.1
2.05	0.24	1024.305	1.077679	1024.306	104014.7	104014.7	104014.7
2.075	0.24	1024.689	0.967625	1024.689	104095.2	104095.2	104095.2
2.1	0.24	1024.819	0.724618	1024.82	104065.4	104065.4	104065.4
2.125	0.24	1024.702	0.477457	1024.702	103915.8	103915.8	103915.8
2.15	0.24	1024.371	0.352003	1024.371	103712.6	103712.6	103712.6
2.175	0.24	1024.157	0.322056	1024.157	103609	103609	103609
2.2	0.24	1024.171	0.326397	1024.171	103605.8	103605.8	103605.8
2.225	0.24	1024.355	0.316343	1024.355	103676.1	103676.1	103676.1
2.25	0.24	1024.725	0.182106	1024.725	103818.6	103818.6	103818.6
2.275	0.24	1024.995	-0.1006	1024.995	103906.8	103906.8	103906.8
2.3	0.24	1025.05	-0.34726	1025.05	103890.7	103890.7	103890.7
2.325	0.24	1024.936	-0.44899	1024.936	103786.6	103786.6	103786.6
2.35	0.24	1024.599	-0.39711	1024.599	103591.5	103591.5	103591.5
2.375	0.24	1024.324	-0.10495	1024.324	103433.6	103433.6	103433.6
2.4	0.24	1024.28	0.31922	1024.28	103385.4	103385.4	103385.4
2.425	0.24	1024.361	0.647817	1024.361	103405.5	103405.5	103405.5
2.45	0.24	1024.563	0.809743	1024.564	103480.9	103480.9	103480.9
2.475	0.24	1024.727	0.815119	1024.727	103545.4	103545.4	103545.4
2.5	0.24	1024.742	0.645574	1024.742	103557.5	103557.5	103557.5
2.525	0.24	1024.668	0.338495	1024.668	103545.8	103545.8	103545.8
2.55	0.24	1024.574	0.0443	1024.574	103526	103526	103526
2.575	0.24	1024.545	-0.17014	1024.545	103527.8	103527.8	103527.8
2.6	0.24	1024.628	-0.30085	1024.628	103562	103562	103562
2.625	0.24	1024.815	-0.34796	1024.815	103610.1	103610.1	103610.1
2.65	0.24	1024.97	-0.34818	1024.971	103639.5	103639.5	103639.5
2.675	0.24	1025.016	-0.32765	1025.016	103629.1	103629.1	103629.1
2.7	0.24	1024.958	-0.27148	1024.958	103567.3	103567.3	103567.3
2.725	0.24	1024.678	-0.14075	1024.678	103420.6	103420.6	103420.6
2.75	0.24	1024.344	0.035002	1024.344	103277	103277	103277
2.775	0.24	1024.209	0.183438	1024.209	103229.7	103229.7	103229.7
2.8	0.24	1024.206	0.302392	1024.206	103247.4	103247.4	103247.4
2.825	0.24	1024.354	0.404634	1024.354	103336	103336	103336
2.85	0.24	1024.708	0.454713	1024.709	103502.4	103502.4	103502.4
2.875	0.24	1025.01	0.410979	1025.01	103630.5	103630.5	103630.5
2.9	0.24	1025.113	0.273934	1025.113	103659.8	103659.8	103659.8
2.925	0.24	1025.133	0.092327	1025.133	103636.1	103636.1	103636.1
2.95	0.24	1025.075	-0.08468	1025.075	103560.3	103560.3	103560.3
2.975	0.24	1024.858	-0.28746	1024.858	103482.2	103482.2	103482.2
3	0.24	1024.696	-0.40661	1024.696	103457.5	103457.5	103457.5
0	0.075	1040	-2.8E-15	1040	100000	100000	100000
0.025	0.075	1040	-1.8E-15	1040	100000	100000	100000
0.05	0.075	1040	3.03E-15	1040	100000	100000	100000
0.075	0.075	1040	2.59E-15	1040	100000	100000	100000
0.1	0.075	1040	-8.3E-15	1040	100000	100000	100000
0.125	0.075	1040	-1.2E-14	1040	100000	100000	100000
0.15	0.075	1040	6.22E-15	1040	100000	100000	100000
0.175	0.075	1040	2.98E-14	1040	100000	100000	100000
0.2	0.075	1040	4.69E-14	1040	100000	100000	100000
0.225	0.075	1040	4.49E-14	1040	100000	100000	100000
0.25	0.075	1040	1.87E-14	1040	100000	100000	100000
0.275	0.075	1040	-7.5E-15	1040	100000	100000	100000
0.3	0.075	1040	-5.3E-15	1040	100000	100000	100000
0.325	0.075	1040	6.87E-14	1040	100000	100000	100000
0.35	0.075	1040	1.17E-13	1040	100000	100000	100000
0.375	0.075	1040	1.18E-13	1040	100000	100000	100000
0.4	0.075	1040	1.92E-13	1040	100000	100000	100000
0.425	0.075	1040	2.78E-13	1040	100000	100000	100000
0.45	0.075	1040	2.9E-13	1040	100000	100000	100000
0.475	0.075	1040	2.06E-13	1040	100000	100000	100000
0.5	0.075	1039.998	0.003266	1039.998	100001.6	100001.6	100001.6
0.525	0.082708	1039.982	0.028613	1039.982	100013.8	100013.8	100013.8
0.55	0.090417	1039.912	0.145677	1039.912	100069.2	100069.2	100069.2
0.575	0.098125	1039.625	0.628545	1039.625	100296.7	100296.7	100296.7
0.6	0.105833	1038.25	2.93726	1038.254	101402.2	101402.2	101402.2
0.625	0.113542	1031.565	13.73418	1031.656	107112.9	107112.9	107112.9
0.65	0.12125	1012.866	42.13454	1013.742	125517.3	125517.3	125517.3
0.675	0.128958	977.1595	91.43089	981.4277	166271.5	166271.5	166271.5
0.7	0.136667	926.1807	157.7209	939.514	227451.1	227451.1	227451.1
0.725	0.144375	872.6329	222.46	900.5424	296613.7	296613.7	296613.7
0.75	0.152083	834.7813	267.1299	876.4805	346833.8	346833.8	346833.8
0.775	0.159792	819.7062	286.7582	868.4172	364748.7	364748.7	364748.7
0.8	0.1675	819.6923	289.3304	869.2569	362931.2	362931.2	362931.2
0.825	0.175208	824.4846	287.0064	873.0106	353963.1	353963.1	353963.1
0.85	0.182917	828.6237	283.0969	875.6489	347776.1	347776.1	347776.1
0.875	0.190625	831.0815	279.1443	876.7087	345468.2	345468.2	345468.2
0.9	0.198333	832.3101	277.0472	877.2088	344726.4	344726.4	344726.4
0.925	0.206042	832.8007	276.6113	877.5368	344426.7	344426.7	344426.7
0.95	0.21375	832.8269	276.6922	877.5872	344388.3	344388.3	344388.3
0.975	0.221458	832.8438	277.0719	877.723	344240.3	344240.3	344240.3
1	0.229167	832.9265	277.3896	877.9017	344039	344039	344039
1.025	0.236875	832.961	277.5938	877.9991	343932.4	343932.4	343932.4
1.05	0.244583	832.926	277.6838	877.9943	343943.5	343943.5	343943.5
1.075	0.252292	832.6166	277.6479	877.6894	344192.9	344192.9	344192.9
1.1	0.26	835.8408	274.8189	879.8609	339800.7	339800.7	339800.7
1.125	0.26	848.468	263.2585	888.371	322180.1	322180.1	322180.1
1.15	0.26	871.724	239.073	903.913	289208.9	289208.9	289208.9
1.175	0.26	901.4276	204.438	924.3196	248133.4	248133.4	248133.4
1.2	0.26	930.8459	165.7955	945.4958	209080.5	209080.5	209080.5
1.225	0.26	955.7537	128.9934	964.4192	177579.5	177579.5	177579.5
1.25	0.26	975.2314	96.85792	980.0295	154150.9	154150.9	154150.9
1.275	0.26	989.9042	69.7776	992.3605	137129	137129	137129
1.3	0.26	1000.654	47.45937	1001.779	124831.3	124831.3	124831.3
1.325	0.26	1008.597	29.5226	1009.029	115952.7	115952.7	115952.7
1.35	0.26	1014.425	15.24848	1014.54	109545.3	109545.3	109545.3
1.375	0.26	1018.181	4.511127	1018.191	104961.5	104961.5	104961.5
1.4	0.26	1020.442	-2.72425	1020.446	101960.1	101960.1	101960.1
1.425	0.26	1021.567	-7.30614	1021.593	100336.9	100336.9	100336.9
1.45	0.26	1021.801	-10.1987	1021.852	99621.16	99621.16	99621.16
1.475	0.26	1021.889	-11.3747	1021.953	99678.61	99678.61	99678.61
1.5	0.26	1022.038	-11.0623	1022.098	100228	100228	100228
1.525	0.26	1021.946	-9.96367	1021.995	100828.6	100828.6	100828.6
1.55	0.26	1021.516	-8.15676	1021.548	101373.4	101373.4	101373.4
1.575	0.26	1020.786	-5.88918	1020.803	101881.4	101881.4	101881.4
1.6	0.26	1019.877	-3.52388	1019.883	102356.3	102356.3	102356.3
1.625	0.26	1019.04	-1.87996	1019.042	102837.3	102837.3	102837.3
1.65	0.26	1018.474	-1.22364	1018.475	103370	103370	103370
1.675	0.26	1018.355	-1.11813	1018.356	103951.9	103951.9	103951.9
1.7	0.26	1018.581	-1.14537	1018.582	104388.5	104388.5	104388.5
1.725	0.26	1018.768	-0.9248	1018.769	104528	104528	104528
1.75	0.26	1018.668	-0.31172	1018.669	104447.1	104447.1	104447.1
1.775	0.26	1018.297	0.489214	1018.297	104235.5	104235.5	104235.5
1.8	0.26	1017.987	0.966345	1017.988	104059.7	104059.7	104059.7
1.825	0.26	1018.012	1.085015	1018.013	104011.4	104011.4	104011.4
1.85	0.26	1018.341	1.049017	1018.342	104056.2	104056.2	104056.2
1.875	0.26	1018.703	0.855404	1018.703	104137.7	104137.7	104137.7
1.9	0.26	1018.826	0.589621	1018.826	104162.9	104162.9	104162.9
1.925	0.26	1018.691	0.437232	1018.691	104100.3	104100.3	104100.3
1.95	0.26	1018.398	0.492253	1018.398	103992.3	103992.3	103992.3
1.975	0.26	1018.225	0.797015	1018.225	103923.3	103923.3	103923.3
2	0.26	1018.236	1.160773	1018.237	103909.6	103909.6	103909.6
2.025	0.26	1018.372	1.335308	1018.373	103939.6	103939.6	103939.6
2.05	0.26	1018.65	1.32931	1018.65	104013.4	104013.4	104013.4
2.075	0.26	1018.912	1.133348	1018.913	104060.6	104060.6	104060.6
2.1	0.26	1019.031	0.805115	1019.031	104027.5	104027.5	104027.5
2.125	0.26	1018.977	0.564928	1018.977	103904.7	103904.7	103904.7
2.15	0.26	1018.78	0.497706	1018.78	103750.6	103750.6	103750.6
2.175	0.26	1018.643	0.523295	1018.643	103669.4	103669.4	103669.4
2.2	0.26	1018.64	0.543297	1018.64	103660.4	103660.4	103660.4
2.225	0.26	1018.737	0.492615	1018.737	103696.2	103696.2	103696.2
2.25	0.26	1018.963	0.269902	1018.963	103773.7	103773.7	103773.7
2.275	0.26	1019.174	-0.10425	1019.174	103830.3	103830.3	103830.3
2.3	0.26	1019.251	-0.4025	1019.251	103830.5	103830.5	103830.5
2.325	0.26	1019.225	-0.52973	1019.225	103784.6	103784.6	103784.6
2.35	0.26	1019.089	-0.51453	1019.089	103695.8	103695.8	103695.8
2.375	0.26	1018.97	-0.26904	1018.97	103614.9	103614.9	103614.9
2.4	0.26	1018.965	0.160776	1018.965	103574.3	103574.3	103574.3
2.425	0.26	1019.024	0.534088	1019.024	103550.8	103550.8	103550.8
2.45	0.26	1019.09	0.73526	1019.091	103525.3	103525.3	103525.3
2.475	0.26	1019.09	0.78719	1019.09	103481.9	103481.9	103481.9
2.5	0.26	1019.013	0.707797	1019.013	103426.6	103426.6	103426.6
2.525	0.26	1018.916	0.50363	1018.916	103386.5	103386.5	103386.5
2.55	0.26	1018.86	0.263291	1018.86	103376.6	103376.6	103376.6
2.575	0.26	1018.871	0.039101	1018.871	103404	103404	103404
2.6	0.26	1019.017	-0.17657	1019.017	103489.1	103489.1	103489.1
2.625	0.26	1019.274	-0.31999	1019.274	103600	103600	103600
2.65	0.26	1019.444	-0.3672	1019.444	103655.7	103655.7	103655.7
2.675	0.26	1019.483	-0.37391	1019.483	103654.2	103654.2	103654.2
2.7	0.26	1019.445	-0.35203	1019.445	103614.7	103614.7	103614.7
2.725	0.26	1019.23	-0.23463	1019.23	103498.9	103498.9	103498.9
2.75	0.26	1018.935	0.02866	1018.935	103361	103361	103361
2.775	0.26	1018.792	0.318975	1018.792	103303.1	103303.1	103303.1
2.8	0.26	1018.786	0.516345	1018.786	103318.9	103318.9	103318.9
2.825	0.26	1018.912	0.622437	1018.912	103392.6	103392.6	103392.6
2.85	0.26	1019.164	0.637132	1019.165	103501	103501	103501